# vtk DataFile Version 3.0
vtk output
ASCII
DATASET UNSTRUCTURED_GRID
POINTS 2500 float
       0       0	 0.0
   0.025       0	 0.0
    0.05       0	 0.0
   0.075       0	 0.0
     0.1       0	 0.0
       0   0.025	 0.0
   0.025   0.025	 0.0
    0.05   0.025	 0.0
   0.075   0.025	 0.0
     0.1   0.025	 0.0
       0    0.05	 0.0
   0.025    0.05	 0.0
    0.05    0.05	 0.0
   0.075    0.05	 0.0
     0.1    0.05	 0.0
       0   0.075	 0.0
   0.025   0.075	 0.0
    0.05   0.075	 0.0
   0.075   0.075	 0.0
     0.1   0.075	 0.0
       0     0.1	 0.0
   0.025     0.1	 0.0
    0.05     0.1	 0.0
   0.075     0.1	 0.0
     0.1     0.1	 0.0
     0.1       0	 0.0
   0.125       0	 0.0
    0.15       0	 0.0
   0.175       0	 0.0
     0.2       0	 0.0
     0.1   0.025	 0.0
   0.125   0.025	 0.0
    0.15   0.025	 0.0
   0.175   0.025	 0.0
     0.2   0.025	 0.0
     0.1    0.05	 0.0
   0.125    0.05	 0.0
    0.15    0.05	 0.0
   0.175    0.05	 0.0
     0.2    0.05	 0.0
     0.1   0.075	 0.0
   0.125   0.075	 0.0
    0.15   0.075	 0.0
   0.175   0.075	 0.0
     0.2   0.075	 0.0
     0.1     0.1	 0.0
   0.125     0.1	 0.0
    0.15     0.1	 0.0
   0.175     0.1	 0.0
     0.2     0.1	 0.0
     0.2       0	 0.0
   0.225       0	 0.0
    0.25       0	 0.0
   0.275       0	 0.0
     0.3       0	 0.0
     0.2   0.025	 0.0
   0.225   0.025	 0.0
    0.25   0.025	 0.0
   0.275   0.025	 0.0
     0.3   0.025	 0.0
     0.2    0.05	 0.0
   0.225    0.05	 0.0
    0.25    0.05	 0.0
   0.275    0.05	 0.0
     0.3    0.05	 0.0
     0.2   0.075	 0.0
   0.225   0.075	 0.0
    0.25   0.075	 0.0
   0.275   0.075	 0.0
     0.3   0.075	 0.0
     0.2     0.1	 0.0
   0.225     0.1	 0.0
    0.25     0.1	 0.0
   0.275     0.1	 0.0
     0.3     0.1	 0.0
     0.3       0	 0.0
   0.325       0	 0.0
    0.35       0	 0.0
   0.375       0	 0.0
     0.4       0	 0.0
     0.3   0.025	 0.0
   0.325   0.025	 0.0
    0.35   0.025	 0.0
   0.375   0.025	 0.0
     0.4   0.025	 0.0
     0.3    0.05	 0.0
   0.325    0.05	 0.0
    0.35    0.05	 0.0
   0.375    0.05	 0.0
     0.4    0.05	 0.0
     0.3   0.075	 0.0
   0.325   0.075	 0.0
    0.35   0.075	 0.0
   0.375   0.075	 0.0
     0.4   0.075	 0.0
     0.3     0.1	 0.0
   0.325     0.1	 0.0
    0.35     0.1	 0.0
   0.375     0.1	 0.0
     0.4     0.1	 0.0
     0.4       0	 0.0
   0.425       0	 0.0
    0.45       0	 0.0
   0.475       0	 0.0
     0.5       0	 0.0
     0.4   0.025	 0.0
   0.425   0.025	 0.0
    0.45   0.025	 0.0
   0.475   0.025	 0.0
     0.5   0.025	 0.0
     0.4    0.05	 0.0
   0.425    0.05	 0.0
    0.45    0.05	 0.0
   0.475    0.05	 0.0
     0.5    0.05	 0.0
     0.4   0.075	 0.0
   0.425   0.075	 0.0
    0.45   0.075	 0.0
   0.475   0.075	 0.0
     0.5   0.075	 0.0
     0.4     0.1	 0.0
   0.425     0.1	 0.0
    0.45     0.1	 0.0
   0.475     0.1	 0.0
     0.5     0.1	 0.0
     0.5       0	 0.0
   0.525       0	 0.0
    0.55       0	 0.0
   0.575       0	 0.0
     0.6       0	 0.0
     0.5   0.025	 0.0
   0.525   0.025	 0.0
    0.55   0.025	 0.0
   0.575   0.025	 0.0
     0.6   0.025	 0.0
     0.5    0.05	 0.0
   0.525    0.05	 0.0
    0.55    0.05	 0.0
   0.575    0.05	 0.0
     0.6    0.05	 0.0
     0.5   0.075	 0.0
   0.525   0.075	 0.0
    0.55   0.075	 0.0
   0.575   0.075	 0.0
     0.6   0.075	 0.0
     0.5     0.1	 0.0
   0.525     0.1	 0.0
    0.55     0.1	 0.0
   0.575     0.1	 0.0
     0.6     0.1	 0.0
     0.6       0	 0.0
   0.625       0	 0.0
    0.65       0	 0.0
   0.675       0	 0.0
     0.7       0	 0.0
     0.6   0.025	 0.0
   0.625   0.025	 0.0
    0.65   0.025	 0.0
   0.675   0.025	 0.0
     0.7   0.025	 0.0
     0.6    0.05	 0.0
   0.625    0.05	 0.0
    0.65    0.05	 0.0
   0.675    0.05	 0.0
     0.7    0.05	 0.0
     0.6   0.075	 0.0
   0.625   0.075	 0.0
    0.65   0.075	 0.0
   0.675   0.075	 0.0
     0.7   0.075	 0.0
     0.6     0.1	 0.0
   0.625     0.1	 0.0
    0.65     0.1	 0.0
   0.675     0.1	 0.0
     0.7     0.1	 0.0
     0.7       0	 0.0
   0.725       0	 0.0
    0.75       0	 0.0
   0.775       0	 0.0
     0.8       0	 0.0
     0.7   0.025	 0.0
   0.725   0.025	 0.0
    0.75   0.025	 0.0
   0.775   0.025	 0.0
     0.8   0.025	 0.0
     0.7    0.05	 0.0
   0.725    0.05	 0.0
    0.75    0.05	 0.0
   0.775    0.05	 0.0
     0.8    0.05	 0.0
     0.7   0.075	 0.0
   0.725   0.075	 0.0
    0.75   0.075	 0.0
   0.775   0.075	 0.0
     0.8   0.075	 0.0
     0.7     0.1	 0.0
   0.725     0.1	 0.0
    0.75     0.1	 0.0
   0.775     0.1	 0.0
     0.8     0.1	 0.0
     0.8       0	 0.0
   0.825       0	 0.0
    0.85       0	 0.0
   0.875       0	 0.0
     0.9       0	 0.0
     0.8   0.025	 0.0
   0.825   0.025	 0.0
    0.85   0.025	 0.0
   0.875   0.025	 0.0
     0.9   0.025	 0.0
     0.8    0.05	 0.0
   0.825    0.05	 0.0
    0.85    0.05	 0.0
   0.875    0.05	 0.0
     0.9    0.05	 0.0
     0.8   0.075	 0.0
   0.825   0.075	 0.0
    0.85   0.075	 0.0
   0.875   0.075	 0.0
     0.9   0.075	 0.0
     0.8     0.1	 0.0
   0.825     0.1	 0.0
    0.85     0.1	 0.0
   0.875     0.1	 0.0
     0.9     0.1	 0.0
     0.9       0	 0.0
   0.925       0	 0.0
    0.95       0	 0.0
   0.975       0	 0.0
       1       0	 0.0
     0.9   0.025	 0.0
   0.925   0.025	 0.0
    0.95   0.025	 0.0
   0.975   0.025	 0.0
       1   0.025	 0.0
     0.9    0.05	 0.0
   0.925    0.05	 0.0
    0.95    0.05	 0.0
   0.975    0.05	 0.0
       1    0.05	 0.0
     0.9   0.075	 0.0
   0.925   0.075	 0.0
    0.95   0.075	 0.0
   0.975   0.075	 0.0
       1   0.075	 0.0
     0.9     0.1	 0.0
   0.925     0.1	 0.0
    0.95     0.1	 0.0
   0.975     0.1	 0.0
       1     0.1	 0.0
       0     0.1	 0.0
   0.025     0.1	 0.0
    0.05     0.1	 0.0
   0.075     0.1	 0.0
     0.1     0.1	 0.0
       0   0.125	 0.0
   0.025   0.125	 0.0
    0.05   0.125	 0.0
   0.075   0.125	 0.0
     0.1   0.125	 0.0
       0    0.15	 0.0
   0.025    0.15	 0.0
    0.05    0.15	 0.0
   0.075    0.15	 0.0
     0.1    0.15	 0.0
       0   0.175	 0.0
   0.025   0.175	 0.0
    0.05   0.175	 0.0
   0.075   0.175	 0.0
     0.1   0.175	 0.0
       0     0.2	 0.0
   0.025     0.2	 0.0
    0.05     0.2	 0.0
   0.075     0.2	 0.0
     0.1     0.2	 0.0
     0.1     0.1	 0.0
   0.125     0.1	 0.0
    0.15     0.1	 0.0
   0.175     0.1	 0.0
     0.2     0.1	 0.0
     0.1   0.125	 0.0
   0.125   0.125	 0.0
    0.15   0.125	 0.0
   0.175   0.125	 0.0
     0.2   0.125	 0.0
     0.1    0.15	 0.0
   0.125    0.15	 0.0
    0.15    0.15	 0.0
   0.175    0.15	 0.0
     0.2    0.15	 0.0
     0.1   0.175	 0.0
   0.125   0.175	 0.0
    0.15   0.175	 0.0
   0.175   0.175	 0.0
     0.2   0.175	 0.0
     0.1     0.2	 0.0
   0.125     0.2	 0.0
    0.15     0.2	 0.0
   0.175     0.2	 0.0
     0.2     0.2	 0.0
     0.2     0.1	 0.0
   0.225     0.1	 0.0
    0.25     0.1	 0.0
   0.275     0.1	 0.0
     0.3     0.1	 0.0
     0.2   0.125	 0.0
   0.225   0.125	 0.0
    0.25   0.125	 0.0
   0.275   0.125	 0.0
     0.3   0.125	 0.0
     0.2    0.15	 0.0
   0.225    0.15	 0.0
    0.25    0.15	 0.0
   0.275    0.15	 0.0
     0.3    0.15	 0.0
     0.2   0.175	 0.0
   0.225   0.175	 0.0
    0.25   0.175	 0.0
   0.275   0.175	 0.0
     0.3   0.175	 0.0
     0.2     0.2	 0.0
   0.225     0.2	 0.0
    0.25     0.2	 0.0
   0.275     0.2	 0.0
     0.3     0.2	 0.0
     0.3     0.1	 0.0
   0.325     0.1	 0.0
    0.35     0.1	 0.0
   0.375     0.1	 0.0
     0.4     0.1	 0.0
     0.3   0.125	 0.0
   0.325   0.125	 0.0
    0.35   0.125	 0.0
   0.375   0.125	 0.0
     0.4   0.125	 0.0
     0.3    0.15	 0.0
   0.325    0.15	 0.0
    0.35    0.15	 0.0
   0.375    0.15	 0.0
     0.4    0.15	 0.0
     0.3   0.175	 0.0
   0.325   0.175	 0.0
    0.35   0.175	 0.0
   0.375   0.175	 0.0
     0.4   0.175	 0.0
     0.3     0.2	 0.0
   0.325     0.2	 0.0
    0.35     0.2	 0.0
   0.375     0.2	 0.0
     0.4     0.2	 0.0
     0.4     0.1	 0.0
   0.425     0.1	 0.0
    0.45     0.1	 0.0
   0.475     0.1	 0.0
     0.5     0.1	 0.0
     0.4   0.125	 0.0
   0.425   0.125	 0.0
    0.45   0.125	 0.0
   0.475   0.125	 0.0
     0.5   0.125	 0.0
     0.4    0.15	 0.0
   0.425    0.15	 0.0
    0.45    0.15	 0.0
   0.475    0.15	 0.0
     0.5    0.15	 0.0
     0.4   0.175	 0.0
   0.425   0.175	 0.0
    0.45   0.175	 0.0
   0.475   0.175	 0.0
     0.5   0.175	 0.0
     0.4     0.2	 0.0
   0.425     0.2	 0.0
    0.45     0.2	 0.0
   0.475     0.2	 0.0
     0.5     0.2	 0.0
     0.5     0.1	 0.0
   0.525     0.1	 0.0
    0.55     0.1	 0.0
   0.575     0.1	 0.0
     0.6     0.1	 0.0
     0.5   0.125	 0.0
   0.525   0.125	 0.0
    0.55   0.125	 0.0
   0.575   0.125	 0.0
     0.6   0.125	 0.0
     0.5    0.15	 0.0
   0.525    0.15	 0.0
    0.55    0.15	 0.0
   0.575    0.15	 0.0
     0.6    0.15	 0.0
     0.5   0.175	 0.0
   0.525   0.175	 0.0
    0.55   0.175	 0.0
   0.575   0.175	 0.0
     0.6   0.175	 0.0
     0.5     0.2	 0.0
   0.525     0.2	 0.0
    0.55     0.2	 0.0
   0.575     0.2	 0.0
     0.6     0.2	 0.0
     0.6     0.1	 0.0
   0.625     0.1	 0.0
    0.65     0.1	 0.0
   0.675     0.1	 0.0
     0.7     0.1	 0.0
     0.6   0.125	 0.0
   0.625   0.125	 0.0
    0.65   0.125	 0.0
   0.675   0.125	 0.0
     0.7   0.125	 0.0
     0.6    0.15	 0.0
   0.625    0.15	 0.0
    0.65    0.15	 0.0
   0.675    0.15	 0.0
     0.7    0.15	 0.0
     0.6   0.175	 0.0
   0.625   0.175	 0.0
    0.65   0.175	 0.0
   0.675   0.175	 0.0
     0.7   0.175	 0.0
     0.6     0.2	 0.0
   0.625     0.2	 0.0
    0.65     0.2	 0.0
   0.675     0.2	 0.0
     0.7     0.2	 0.0
     0.7     0.1	 0.0
   0.725     0.1	 0.0
    0.75     0.1	 0.0
   0.775     0.1	 0.0
     0.8     0.1	 0.0
     0.7   0.125	 0.0
   0.725   0.125	 0.0
    0.75   0.125	 0.0
   0.775   0.125	 0.0
     0.8   0.125	 0.0
     0.7    0.15	 0.0
   0.725    0.15	 0.0
    0.75    0.15	 0.0
   0.775    0.15	 0.0
     0.8    0.15	 0.0
     0.7   0.175	 0.0
   0.725   0.175	 0.0
    0.75   0.175	 0.0
   0.775   0.175	 0.0
     0.8   0.175	 0.0
     0.7     0.2	 0.0
   0.725     0.2	 0.0
    0.75     0.2	 0.0
   0.775     0.2	 0.0
     0.8     0.2	 0.0
[...]
CELL_DATA 1600
POINT_DATA 2500
SCALARS exact float 1
LOOKUP_TABLE default
1 1.025 1.05 1.075 1.1 1 1.025 1.05 1.075 1.1 1 1.025 1.05 1.075 1.1 1 1.025 1.05 1.075 1.1 1 1.025 1.05 1.075 1.1 1.1 1.125 1.15 1.175 1.2 1.1 1.125 1.15 1.175 1.2 1.1 1.125 1.15 1.175 1.2 1.1 1.125 1.15 1.175 1.2 1.1 1.125 1.15 1.175 1.2 1.2 1.225 1.25 1.275 1.3 1.2 1.225 1.25 1.275 1.3 1.2 1.225 1.25 1.275 1.3 1.2 1.225 1.25 1.275 1.3 1.2 1.225 1.25 1.275 1.3 1.3 1.325 1.35 1.375 1.4 1.3 1.325 1.35 1.375 1.4 1.3 1.325 1.35 1.375 1.4 1.3 1.325 1.35 1.375 1.4 1.3 1.325 1.35 1.375 1.4 1.4 1.425 1.45 1.475 1.5 1.4 1.425 1.45 1.475 1.5 1.4 1.425 1.45 1.475 1.5 1.4 1.425 1.45 1.475 1.5 1.4 1.425 1.45 1.475 1.5 1.5 1.525 1.55 1.575 1.6 1.5 1.525 1.55 1.575 1.6 1.5 1.525 1.55 1.575 1.6 1.5 1.525 1.55 1.575 1.6 1.5 1.525 1.55 1.575 1.6 1.6 1.625 1.65 1.675 1.7 1.6 1.625 1.65 1.675 1.7 1.6 1.625 1.65 1.675 1.7 1.6 1.625 1.65 1.675 1.7 1.6 1.625 1.65 1.675 1.7 1.7 1.725 1.75 1.775 1.8 1.7 1.725 1.75 1.775 1.8 1.7 1.725 1.75 1.775 1.8 1.7 1.725 1.75 1.775 1.8 1.7 1.725 1.75 1.775 1.8 1.8 1.825 1.85 1.875 1.9 1.8 1.825 1.85 1.875 1.9 1.8 1.825 1.85 1.875 1.9 1.8 1.825 1.85 1.875 1.9 1.8 1.825 1.85 1.875 1.9 1.9 1.925 1.95 1.975 2 1.9 1.925 1.95 1.975 2 1.9 1.925 1.95 1.975 2 1.9 1.925 1.95 1.975 2 1.9 1.925 1.95 1.975 2 1 1.025 1.05 1.075 1.1 1 1.025 1.05 1.075 1.1 1 1.025 1.05 1.075 1.1 1 1.025 1.05 1.075 1.1 1 1.025 1.05 1.075 1.1 1.1 1.125 1.15 1.175 1.2 1.1 1.125 1.15 1.175 1.2 1.1 1.125 1.15 1.175 1.2 1.1 1.125 1.15 1.175 1.2 1.1 1.125 1.15 1.175 1.2 1.2 1.225 1.25 1.275 1.3 1.2 1.225 1.25 1.275 1.3 1.2 1.225 1.25 1.275 1.3 1.2 1.225 1.25 1.275 1.3 1.2 1.225 1.25 1.275 1.3 1.3 1.325 1.35 1.375 1.4 1.3 1.325 1.35 1.375 1.4 1.3 1.325 1.35 1.375 1.4 1.3 1.325 1.35 1.375 1.4 1.3 1.325 1.35 1.375 1.4 1.4 1.425 1.45 1.475 1.5 1.4 1.425 1.45 1.475 1.5 1.4 1.425 1.45 1.475 1.5 1.4 1.425 1.45 1.475 1.5 1.4 1.425 1.45 1.475 1.5 1.5 1.525 1.55 1.575 1.6 1.5 1.525 1.55 1.575 1.6 1.5 1.525 1.55 1.575 1.6 1.5 1.525 1.55 1.575 1.6 1.5 1.525 1.55 1.575 1.6 1.6 1.625 1.65 1.675 1.7 1.6 1.625 1.65 1.675 1.7 1.6 1.625 1.65 1.675 1.7 1.6 1.625 1.65 1.675 1.7 1.6 1.625 1.65 1.675 1.7 1.7 1.725 1.75 1.775 1.8 1.7 1.725 1.75 1.775 1.8 1.7 1.725 1.75 1.775 1.8 1.7 1.725 1.75 1.775 1.8 1.7 1.725 1.75 1.775 1.8 1.8 1.825 1.85 1.875 1.9 1.8 1.825 1.85 1.875 1.9 1.8 1.825 1.85 1.875 1.9 1.8 1.825 1.85 1.875 1.9 1.8 1.825 1.85 1.875 1.9 1.9 1.925 1.95 1.975 2 1.9 1.925 1.95 1.975 2 1.9 1.925 1.95 1.975 2 1.9 1.925 1.95 1.975 2 1.9 1.925 1.95 1.975 2 1 1.025 1.05 1.075 1.1 1 1.025 1.05 1.075 1.1 1 1.025 1.05 1.075 1.1 1 1.025 1.05 1.075 1.1 1 1.025 1.05 1.075 1.1 1.1 1.125 1.15 1.175 1.2 1.1 1.125 1.15 1.175 1.2 1.1 1.125 1.15 1.175 1.2 1.1 1.125 1.15 1.175 1.2 1.1 1.125 1.15 1.175 1.2 1.2 1.225 1.25 1.275 1.3 1.2 1.225 1.25 1.275 1.3 1.2 1.225 1.25 1.275 1.3 1.2 1.225 1.25 1.275 1.3 1.2 1.225 1.25 1.275 1.3 1.3 1.325 1.35 1.375 1.4 1.3 1.325 1.35 1.375 1.4 1.3 1.325 1.35 1.375 1.4 1.3 1.325 1.35 1.375 1.4 1.3 1.325 1.35 1.375 1.4 1.4 1.425 1.45 1.475 1.5 1.4 1.425 1.45 1.475 1.5 1.4 1.425 1.45 1.475 1.5 1.4 1.425 1.45 1.475 1.5 1.4 1.425 1.45 1.475 1.5 1.5 1.525 1.55 1.575 1.6 1.5 1.525 1.55 1.575 1.6 1.5 1.525 1.55 1.575 1.6 1.5 1.525 1.55 1.575 1.6 1.5 1.525 1.55 1.575 1.6 1.6 1.625 1.65 1.675 1.7 1.6 1.625 1.65 1.675 1.7 1.6 1.625 1.65 1.675 1.7 1.6 1.625 1.65 1.675 1.7 1.6 1.625 1.65 1.675 1.7 1.7 1.725 1.75 1.775 1.8 1.7 1.725 1.75 1.775 1.8 1.7 1.725 1.75 1.775 1.8 1.7 1.725 1.75 1.775 1.8 1.7 1.725 1.75 1.775 1.8 1.8 1.825 1.85 1.875 1.9 1.8 1.825 1.85 1.875 1.9 1.8 1.825 1.85 1.875 1.9 1.8 1.825 1.85 1.875 1.9 1.8 1.825 1.85 1.875 1.9 1.9 1.925 1.95 1.975 2 1.9 1.925 1.95 1.975 2 1.9 1.925 1.95 1.975 2 1.9 1.925 1.95 1.975 2 1.9 1.925 1.95 1.975 2 1 1.025 1.05 1.075 1.1 1 1.025 1.05 1.075 1.1 1 1.025 1.05 1.075 1.1 1 1.025 1.05 1.075 1.1 1 1.025 1.05 1.075 1.1 1.1 1.125 1.15 1.175 1.2 1.1 1.125 1.15 1.175 1.2 1.1 1.125 1.15 1.175 1.2 1.1 1.125 1.15 1.175 1.2 1.1 1.125 1.15 1.175 1.2 1.2 1.225 1.25 1.275 1.3 1.2 1.225 1.25 1.275 1.3 1.2 1.225 1.25 1.275 1.3 1.2 1.225 1.25 1.275 1.3 1.2 1.225 1.25 1.275 1.3 1.3 1.325 1.35 1.375 1.4 1.3 1.325 1.35 1.375 1.4 1.3 1.325 1.35 1.375 1.4 1.3 1.325 1.35 1.375 1.4 1.3 1.325 1.35 1.375 1.4 1.4 1.425 1.45 1.475 1.5 1.4 1.425 1.45 1.475 1.5 1.4 1.425 1.45 1.475 1.5 1.4 1.425 1.45 1.475 1.5 1.4 1.425 1.45 1.475 1.5 1.5 1.525 1.55 1.575 1.6 1.5 1.525 1.55 1.575 1.6 1.5 1.525 1.55 1.575 1.6 1.5 1.525 1.55 1.575 1.6 1.5 1.525 1.55 1.575 1.6 1.6 1.625 1.65 1.675 1.7 1.6 1.625 1.65 1.675 1.7 1.6 1.625 1.65 1.675 1.7 1.6 1.625 1.65 1.675 1.7 1.6 1.625 1.65 1.675 1.7 1.7 1.725 1.75 1.775 1.8 1.7 1.725 1.75 1.775 1.8 1.7 1.725 1.75 1.775 1.8 1.7 1.725 1.75 1.775 1.8 1.7 1.725 1.75 1.775 1.8 1.8 1.825 1.85 1.875 1.9 1.8 1.825 1.85 1.875 1.9 1.8 1.825 1.85 1.875 1.9 1.8 1.825 1.85 1.875 1.9 1.8 1.825 1.85 1.875 1.9 1.9 1.925 1.95 1.975 2 1.9 1.925 1.95 1.975 2 1.9 1.925 1.95 1.975 2 1.9 1.925 1.95 1.975 2 1.9 1.925 1.95 1.975 2 1 1.025 1.05 1.075 1.1 1 1.025 1.05 1.075 1.1 1 1.025 1.05 1.075 1.1 1 1.025 1.05 1.075 1.1 1 1.025 1.05 1.075 1.1 1.1 1.125 1.15 1.175 1.2 1.1 1.125 1.15 1.175 1.2 1.1 1.125 1.15 1.175 1.2 1.1 1.125 1.15 1.175 1.2 1.1 1.125 1.15 1.175 1.2 1.2 1.225 1.25 1.275 1.3 1.2 1.225 1.25 1.275 1.3 1.2 1.225 1.25 1.275 1.3 1.2 1.225 1.25 1.275 1.3 1.2 1.225 1.25 1.275 1.3 1.3 1.325 1.35 1.375 1.4 1.3 1.325 1.35 1.375 1.4 1.3 1.325 1.35 1.375 1.4 1.3 1.325 1.35 1.375 1.4 1.3 1.325 1.35 1.375 1.4 1.4 1.425 1.45 1.475 1.5 1.4 1.425 1.45 1.475 1.5 1.4 1.425 1.45 1.475 1.5 1.4 1.425 1.45 1.475 1.5 1.4 1.425 1.45 1.475 1.5 1.5 1.525 1.55 1.575 1.6 1.5 1.525 1.55 1.575 1.6 1.5 1.525 1.55 1.575 1.6 1.5 1.525 1.55 1.575 1.6 1.5 1.525 1.55 1.575 1.6 1.6 1.625 1.65 1.675 1.7 1.6 1.625 1.65 1.675 1.7 1.6 1.625 1.65 1.675 1.7 1.6 1.625 1.65 1.675 1.7 1.6 1.625 1.65 1.675 1.7 1.7 1.725 1.75 1.775 1.8 1.7 1.725 1.75 1.775 1.8 1.7 1.725 1.75 1.775 1.8 1.7 1.725 1.75 1.775 1.8 1.7 1.725 1.75 1.775 1.8 1.8 1.825 1.85 1.875 1.9 1.8 1.825 1.85 1.875 1.9 1.8 1.825 1.85 1.875 1.9 1.8 1.825 1.85 1.875 1.9 1.8 1.825 1.85 1.875 1.9 1.9 1.925 1.95 1.975 2 1.9 1.925 1.95 1.975 2 1.9 1.925 1.95 1.975 2 1.9 1.925 1.95 1.975 2 1.9 1.925 1.95 1.975 2 1 1.025 1.05 1.075 1.1 1 1.025 1.05 1.075 1.1 1 1.025 1.05 1.075 1.1 1 1.025 1.05 1.075 1.1 1 1.025 1.05 1.075 1.1 1.1 1.125 1.15 1.175 1.2 1.1 1.125 1.15 1.175 1.2 1.1 1.125 1.15 1.175 1.2 1.1 1.125 1.15 1.175 1.2 1.1 1.125 1.15 1.175 1.2 1.2 1.225 1.25 1.275 1.3 1.2 1.225 1.25 1.275 1.3 1.2 1.225 1.25 1.275 1.3 1.2 1.225 1.25 1.275 1.3 1.2 1.225 1.25 1.275 1.3 1.3 1.325 1.35 1.375 1.4 1.3 1.325 1.35 1.375 1.4 1.3 1.325 1.35 1.375 1.4 1.3 1.325 1.35 1.375 1.4 1.3 1.325 1.35 1.375 1.4 1.4 1.425 1.45 1.475 1.5 1.4 1.425 1.45 1.475 1.5 1.4 1.425 1.45 1.475 1.5 1.4 1.425 1.45 1.475 1.5 1.4 1.425 1.45 1.475 1.5 1.5 1.525 1.55 1.575 1.6 1.5 1.525 1.55 1.575 1.6 1.5 1.525 1.55 1.575 1.6 1.5 1.525 1.55 1.575 1.6 1.5 1.525 1.55 1.575 1.6 1.6 1.625 1.65 1.675 1.7 1.6 1.625 1.65 1.675 1.7 1.6 1.625 1.65 1.675 1.7 1.6 1.625 1.65 1.675 1.7 1.6 1.625 1.65 1.675 1.7 1.7 1.725 1.75 1.775 1.8 1.7 1.725 1.75 1.775 1.8 1.7 1.725 1.75 1.775 1.8 1.7 1.725 1.75 1.775 1.8 1.7 1.725 1.75 1.775 1.8 1.8 1.825 1.85 1.875 1.9 1.8 1.825 1.85 1.875 1.9 1.8 1.825 1.85 1.875 1.9 1.8 1.825 1.85 1.875 1.9 1.8 1.825 1.85 1.875 1.9 1.9 1.925 1.95 1.975 2 1.9 1.925 1.95 1.975 2 1.9 1.925 1.95 1.975 2 1.9 1.925 1.95 1.975 2 1.9 1.925 1.95 1.975 2 1 1.025 1.05 1.075 1.1 1 1.025 1.05 1.075 1.1 1 1.025 1.05 1.075 1.1 1 1.025 1.05 1.075 1.1 1 1.025 1.05 1.075 1.1 1.1 1.125 1.15 1.175 1.2 1.1 1.125 1.15 1.175 1.2 1.1 1.125 1.15 1.175 1.2 1.1 1.125 1.15 1.175 1.2 1.1 1.125 1.15 1.175 1.2 1.2 1.225 1.25 1.275 1.3 1.2 1.225 1.25 1.275 1.3 1.2 1.225 1.25 1.275 1.3 1.2 1.225 1.25 1.275 1.3 1.2 1.225 1.25 1.275 1.3 1.3 1.325 1.35 1.375 1.4 1.3 1.325 1.35 1.375 1.4 1.3 1.325 1.35 1.375 1.4 1.3 1.325 1.35 1.375 1.4 1.3 1.325 1.35 1.375 1.4 1.4 1.425 1.45 1.475 1.5 1.4 1.425 1.45 1.475 1.5 1.4 1.425 1.45 1.475 1.5 1.4 1.425 1.45 1.475 1.5 1.4 1.425 1.45 1.475 1.5 1.5 1.525 1.55 1.575 1.6 1.5 1.525 1.55 1.575 1.6 1.5 1.525 1.55 1.575 1.6 1.5 1.525 1.55 1.575 1.6 1.5 1.525 1.55 1.575 1.6 1.6 1.625 1.65 1.675 1.7 1.6 1.625 1.65 1.675 1.7 1.6 1.625 1.65 1.675 1.7 1.6 1.625 1.65 1.675 1.7 1.6 1.625 1.65 1.675 1.7 1.7 1.725 1.75 1.775 1.8 1.7 1.725 1.75 1.775 1.8 1.7 1.725 1.75 1.775 1.8 1.7 1.725 1.75 1.775 1.8 1.7 1.725 1.75 1.775 1.8 1.8 1.825 1.85 1.875 1.9 1.8 1.825 1.85 1.875 1.9 1.8 1.825 1.85 1.875 1.9 1.8 1.825 1.85 1.875 1.9 1.8 1.825 1.85 1.875 1.9 1.9 1.925 1.95 1.975 2 1.9 1.925 1.95 1.975 2 1.9 1.925 1.95 1.975 2 1.9 1.925 1.95 1.975 2 1.9 1.925 1.95 1.975 2 1 1.025 1.05 1.075 1.1 1 1.025 1.05 1.075 1.1 1 1.025 1.05 1.075 1.1 1 1.025 1.05 1.075 1.1 1 1.025 1.05 1.075 1.1 1.1 1.125 1.15 1.175 1.2 1.1 1.125 1.15 1.175 1.2 1.1 1.125 1.15 1.175 1.2 1.1 1.125 1.15 1.175 1.2 1.1 1.125 1.15 1.175 1.2 1.2 1.225 1.25 1.275 1.3 1.2 1.225 1.25 1.275 1.3 1.2 1.225 1.25 1.275 1.3 1.2 1.225 1.25 1.275 1.3 1.2 1.225 1.25 1.275 1.3 1.3 1.325 1.35 1.375 1.4 1.3 1.325 1.35 1.375 1.4 1.3 1.325 1.35 1.375 1.4 1.3 1.325 1.35 1.375 1.4 1.3 1.325 1.35 1.375 1.4 1.4 1.425 1.45 1.475 1.5 1.4 1.425 1.45 1.475 1.5 1.4 1.425 1.45 1.475 1.5 1.4 1.425 1.45 1.475 1.5 1.4 1.425 1.45 1.475 1.5 1.5 1.525 1.55 1.575 1.6 1.5 1.525 1.55 1.575 1.6 1.5 1.525 1.55 1.575 1.6 1.5 1.525 1.55 1.575 1.6 1.5 1.525 1.55 1.575 1.6 1.6 1.625 1.65 1.675 1.7 1.6 1.625 1.65 1.675 1.7 1.6 1.625 1.65 1.675 1.7 1.6 1.625 1.65 1.675 1.7 1.6 1.625 1.65 1.675 1.7 1.7 1.725 1.75 1.775 1.8 1.7 1.725 1.75 1.775 1.8 1.7 1.725 1.75 1.775 1.8 1.7 1.725 1.75 1.775 1.8 1.7 1.725 1.75 1.775 1.8 1.8 1.825 1.85 1.875 1.9 1.8 1.825 1.85 1.875 1.9 1.8 1.825 1.85 1.875 1.9 1.8 1.825 1.85 1.875 1.9 1.8 1.825 1.85 1.875 1.9 1.9 1.925 1.95 1.975 2 1.9 1.925 1.95 1.975 2 1.9 1.925 1.95 1.975 2 1.9 1.925 1.95 1.975 2 1.9 1.925 1.95 1.975 2 1 1.025 1.05 1.075 1.1 1 1.025 1.05 1.075 1.1 1 1.025 1.05 1.075 1.1 1 1.025 1.05 1.075 1.1 1 1.025 1.05 1.075 1.1 1.1 1.125 1.15 1.175 1.2 1.1 1.125 1.15 1.175 1.2 1.1 1.125 1.15 1.175 1.2 1.1 1.125 1.15 1.175 1.2 1.1 1.125 1.15 1.175 1.2 1.2 1.225 1.25 1.275 1.3 1.2 1.225 1.25 1.275 1.3 1.2 1.225 1.25 1.275 1.3 1.2 1.225 1.25 1.275 1.3 1.2 1.225 1.25 1.275 1.3 1.3 1.325 1.35 1.375 1.4 1.3 1.325 1.35 1.375 1.4 1.3 1.325 1.35 1.375 1.4 1.3 1.325 1.35 1.375 1.4 1.3 1.325 1.35 1.375 1.4 1.4 1.425 1.45 1.475 1.5 1.4 1.425 1.45 1.475 1.5 1.4 1.425 1.45 1.475 1.5 1.4 1.425 1.45 1.475 1.5 1.4 1.425 1.45 1.475 1.5 1.5 1.525 1.55 1.575 1.6 1.5 1.525 1.55 1.575 1.6 1.5 1.525 1.55 1.575 1.6 1.5 1.525 1.55 1.575 1.6 1.5 1.525 1.55 1.575 1.6 1.6 1.625 1.65 1.675 1.7 1.6 1.625 1.65 1.675 1.7 1.6 1.625 1.65 1.675 1.7 1.6 1.625 1.65 1.675 1.7 1.6 1.625 1.65 1.675 1.7 1.7 1.725 1.75 1.775 1.8 1.7 1.725 1.75 1.775 1.8 1.7 1.725 1.75 1.775 1.8 1.7 1.725 1.75 1.775 1.8 1.7 1.725 1.75 1.775 1.8 1.8 1.825 1.85 1.875 1.9 1.8 1.825 1.85 1.875 1.9 1.8 1.825 1.85 1.875 1.9 1.8 1.825 1.85 1.875 1.9 1.8 1.825 1.85 1.875 1.9 1.9 1.925 1.95 1.975 2 1.9 1.925 1.95 1.975 2 1.9 1.925 1.95 1.975 2 1.9 1.925 1.95 1.975 2 1.9 1.925 1.95 1.975 2 1 1.025 1.05 1.075 1.1 1 1.025 1.05 1.075 1.1 1 1.025 1.05 1.075 1.1 1 1.025 1.05 1.075 1.1 1 1.025 1.05 1.075 1.1 1.1 1.125 1.15 1.175 1.2 1.1 1.125 1.15 1.175 1.2 1.1 1.125 1.15 1.175 1.2 1.1 1.125 1.15 1.175 1.2 1.1 1.125 1.15 1.175 1.2 1.2 1.225 1.25 1.275 1.3 1.2 1.225 1.25 1.275 1.3 1.2 1.225 1.25 1.275 1.3 1.2 1.225 1.25 1.275 1.3 1.2 1.225 1.25 1.275 1.3 1.3 1.325 1.35 1.375 1.4 1.3 1.325 1.35 1.375 1.4 1.3 1.325 1.35 1.375 1.4 1.3 1.325 1.35 1.375 1.4 1.3 1.325 1.35 1.375 1.4 1.4 1.425 1.45 1.475 1.5 1.4 1.425 1.45 1.475 1.5 1.4 1.425 1.45 1.475 1.5 1.4 1.425 1.45 1.475 1.5 1.4 1.425 1.45 1.475 1.5 1.5 1.525 1.55 1.575 1.6 1.5 1.525 1.55 1.575 1.6 1.5 1.525 1.55 1.575 1.6 1.5 1.525 1.55 1.575 1.6 1.5 1.525 1.55 1.575 1.6 1.6 1.625 1.65 1.675 1.7 1.6 1.625 1.65 1.675 1.7 1.6 1.625 1.65 1.675 1.7 1.6 1.625 1.65 1.675 1.7 1.6 1.625 1.65 1.675 1.7 1.7 1.725 1.75 1.775 1.8 1.7 1.725 1.75 1.775 1.8 1.7 1.725 1.75 1.775 1.8 1.7 1.725 1.75 1.775 1.8 1.7 1.725 1.75 1.775 1.8 1.8 1.825 1.85 1.875 1.9 1.8 1.825 1.85 1.875 1.9 1.8 1.825 1.85 1.875 1.9 1.8 1.825 1.85 1.875 1.9 1.8 1.825 1.85 1.875 1.9 1.9 1.925 1.95 1.975 2 1.9 1.925 1.95 1.975 2 1.9 1.925 1.95 1.975 2 1.9 1.925 1.95 1.975 2 1.9 1.925 1.95 1.975 2 
SCALARS init float 1
LOOKUP_TABLE default